V -t * -v 1.0a5 -a 0
W -t * -x 500 -y 500
A -t * -n 1 -p 0 -o 0x7fffffff -c 30 -a 1
A -t * -h 1 -m 1073741823 -s 0
+ -t 0.031538939 -s 1 -d -1 -p message -e 32 -c 2 -a 0 -i 0 -k RTR 
- -t 0.031538939 -s 1 -d -1 -p message -e 32 -c 2 -a 0 -i 0 -k RTR
h -t 0.031538939 -s 1 -d -1 -p message -e 32 -c 2 -a 0 -i 0 -k RTR
r -t 0.032599114 -s 2 -d -1 -p message -e 32 -c 2 -a 0 -i 0 -k RTR
r -t 0.032599196 -s 4 -d -1 -p message -e 32 -c 2 -a 0 -i 0 -k RTR
r -t 0.032599580 -s 0 -d -1 -p message -e 32 -c 2 -a 0 -i 0 -k RTR
+ -t 0.179336133 -s 2 -d -1 -p message -e 32 -c 2 -a 0 -i 1 -k RTR 
- -t 0.179336133 -s 2 -d -1 -p message -e 32 -c 2 -a 0 -i 1 -k RTR
h -t 0.179336133 -s 2 -d -1 -p message -e 32 -c 2 -a 0 -i 1 -k RTR
r -t 0.180196308 -s 1 -d -1 -p message -e 32 -c 2 -a 0 -i 1 -k RTR
r -t 0.180196544 -s 4 -d -1 -p message -e 32 -c 2 -a 0 -i 1 -k RTR
r -t 0.180196601 -s 0 -d -1 -p message -e 32 -c 2 -a 0 -i 1 -k RTR
r -t 0.180196892 -s 3 -d -1 -p message -e 32 -c 2 -a 0 -i 1 -k RTR
+ -t 0.888747441 -s 3 -d -1 -p message -e 32 -c 2 -a 0 -i 2 -k RTR 
- -t 0.888747441 -s 3 -d -1 -p message -e 32 -c 2 -a 0 -i 2 -k RTR
h -t 0.888747441 -s 3 -d -1 -p message -e 32 -c 2 -a 0 -i 2 -k RTR
r -t 0.889808121 -s 0 -d -1 -p message -e 32 -c 2 -a 0 -i 2 -k RTR
r -t 0.889808199 -s 2 -d -1 -p message -e 32 -c 2 -a 0 -i 2 -k RTR
+ -t 1.113509485 -s 0 -d -1 -p message -e 32 -c 2 -a 0 -i 3 -k RTR 
- -t 1.113509485 -s 0 -d -1 -p message -e 32 -c 2 -a 0 -i 3 -k RTR
h -t 1.113509485 -s 0 -d -1 -p message -e 32 -c 2 -a 0 -i 3 -k RTR
r -t 1.114649952 -s 2 -d -1 -p message -e 32 -c 2 -a 0 -i 3 -k RTR
r -t 1.114650126 -s 1 -d -1 -p message -e 32 -c 2 -a 0 -i 3 -k RTR
r -t 1.114650164 -s 3 -d -1 -p message -e 32 -c 2 -a 0 -i 3 -k RTR
+ -t 1.600891786 -s 4 -d -1 -p message -e 32 -c 2 -a 0 -i 4 -k RTR 
- -t 1.600891786 -s 4 -d -1 -p message -e 32 -c 2 -a 0 -i 4 -k RTR
h -t 1.600891786 -s 4 -d -1 -p message -e 32 -c 2 -a 0 -i 4 -k RTR
r -t 1.601952044 -s 1 -d -1 -p message -e 32 -c 2 -a 0 -i 4 -k RTR
r -t 1.601952198 -s 2 -d -1 -p message -e 32 -c 2 -a 0 -i 4 -k RTR
n -t 5.000000 -s 0 -x 271.000000 -y 152.000000 -U -14.999863 -V 0.064102 -T 15.600142
n -t 10.000000 -s 1 -x 138.000000 -y 13.000000 -U -3.098172 -V 11.593159 -T 10.005901
+ -t 10.000000000 -s 0 -d -1 -p tcp -e 40 -c 2 -a 0 -i 5 -k AGT 
- -t 10.000000000 -s 0 -d -1 -p tcp -e 40 -c 2 -a 0 -i 5 -k AGT
h -t 10.000000000 -s 0 -d -1 -p tcp -e 40 -c 2 -a 0 -i 5 -k AGT
+ -t 12.039522182 -s 2 -d -1 -p message -e 32 -c 2 -a 0 -i 6 -k RTR 
- -t 12.039522182 -s 2 -d -1 -p message -e 32 -c 2 -a 0 -i 6 -k RTR
h -t 12.039522182 -s 2 -d -1 -p message -e 32 -c 2 -a 0 -i 6 -k RTR
r -t 12.040882341 -s 1 -d -1 -p message -e 32 -c 2 -a 0 -i 6 -k RTR
r -t 12.040882536 -s 0 -d -1 -p message -e 32 -c 2 -a 0 -i 6 -k RTR
r -t 12.040882593 -s 4 -d -1 -p message -e 32 -c 2 -a 0 -i 6 -k RTR
r -t 12.040882941 -s 3 -d -1 -p message -e 32 -c 2 -a 0 -i 6 -k RTR
+ -t 12.040997832 -s 0 -d -1 -p message -e 32 -c 2 -a 0 -i 8 -k RTR 
- -t 12.040997832 -s 0 -d -1 -p message -e 32 -c 2 -a 0 -i 8 -k RTR
h -t 12.040997832 -s 0 -d -1 -p message -e 32 -c 2 -a 0 -i 8 -k RTR
+ -t 12.041219869 -s 4 -d -1 -p message -e 32 -c 2 -a 0 -i 7 -k RTR 
- -t 12.041219869 -s 4 -d -1 -p message -e 32 -c 2 -a 0 -i 7 -k RTR
h -t 12.041219869 -s 4 -d -1 -p message -e 32 -c 2 -a 0 -i 7 -k RTR
r -t 12.041858186 -s 2 -d -1 -p message -e 32 -c 2 -a 0 -i 8 -k RTR
r -t 12.041858234 -s 1 -d -1 -p message -e 32 -c 2 -a 0 -i 8 -k RTR
r -t 12.041858255 -s 3 -d -1 -p message -e 32 -c 2 -a 0 -i 8 -k RTR
r -t 12.041858426 -s 4 -d -1 -p message -e 32 -c 2 -a 0 -i 8 -k RTR
r -t 12.042928681 -s 1 -d -1 -p message -e 32 -c 2 -a 0 -i 7 -k RTR
r -t 12.042928837 -s 2 -d -1 -p message -e 32 -c 2 -a 0 -i 7 -k RTR
r -t 12.042929020 -s 0 -d -1 -p message -e 32 -c 2 -a 0 -i 7 -k RTR
+ -t 12.181288876 -s 3 -d -1 -p message -e 32 -c 2 -a 0 -i 10 -k RTR 
- -t 12.181288876 -s 3 -d -1 -p message -e 32 -c 2 -a 0 -i 10 -k RTR
h -t 12.181288876 -s 3 -d -1 -p message -e 32 -c 2 -a 0 -i 10 -k RTR
r -t 12.182309296 -s 0 -d -1 -p message -e 32 -c 2 -a 0 -i 10 -k RTR
r -t 12.182309624 -s 1 -d -1 -p message -e 32 -c 2 -a 0 -i 10 -k RTR
r -t 12.182309635 -s 2 -d -1 -p message -e 32 -c 2 -a 0 -i 10 -k RTR
+ -t 12.184251499 -s 1 -d -1 -p message -e 32 -c 2 -a 0 -i 9 -k RTR 
- -t 12.184251499 -s 1 -d -1 -p message -e 32 -c 2 -a 0 -i 9 -k RTR
h -t 12.184251499 -s 1 -d -1 -p message -e 32 -c 2 -a 0 -i 9 -k RTR
r -t 12.185591658 -s 2 -d -1 -p message -e 32 -c 2 -a 0 -i 9 -k RTR
r -t 12.185591754 -s 4 -d -1 -p message -e 32 -c 2 -a 0 -i 9 -k RTR
r -t 12.185591894 -s 0 -d -1 -p message -e 32 -c 2 -a 0 -i 9 -k RTR
r -t 12.185592246 -s 3 -d -1 -p message -e 32 -c 2 -a 0 -i 9 -k RTR
+ -t 12.568041174 -s 3 -d -1 -p message -e 44 -c 2 -a 0 -i 11 -k RTR 
- -t 12.568041174 -s 3 -d -1 -p message -e 44 -c 2 -a 0 -i 11 -k RTR
h -t 12.568041174 -s 3 -d -1 -p message -e 44 -c 2 -a 0 -i 11 -k RTR
r -t 12.569017584 -s 0 -d -1 -p message -e 44 -c 2 -a 0 -i 11 -k RTR
r -t 12.569017906 -s 1 -d -1 -p message -e 44 -c 2 -a 0 -i 11 -k RTR
r -t 12.569017933 -s 2 -d -1 -p message -e 44 -c 2 -a 0 -i 11 -k RTR
+ -t 12.720732410 -s 0 -d -1 -p message -e 56 -c 2 -a 0 -i 12 -k RTR 
- -t 12.720732410 -s 0 -d -1 -p message -e 56 -c 2 -a 0 -i 12 -k RTR
h -t 12.720732410 -s 0 -d -1 -p message -e 56 -c 2 -a 0 -i 12 -k RTR
r -t 12.722024770 -s 2 -d -1 -p message -e 56 -c 2 -a 0 -i 12 -k RTR
r -t 12.722024780 -s 1 -d -1 -p message -e 56 -c 2 -a 0 -i 12 -k RTR
r -t 12.722024816 -s 3 -d -1 -p message -e 56 -c 2 -a 0 -i 12 -k RTR
r -t 12.722024985 -s 4 -d -1 -p message -e 56 -c 2 -a 0 -i 12 -k RTR
+ -t 13.000000000 -s 0 -d -1 -p tcp -e 40 -c 2 -a 0 -i 13 -k AGT 
- -t 13.000000000 -s 0 -d -1 -p tcp -e 40 -c 2 -a 0 -i 13 -k AGT
h -t 13.000000000 -s 0 -d -1 -p tcp -e 40 -c 2 -a 0 -i 13 -k AGT
+ -t 13.035169051 -s 2 -d -1 -p message -e 32 -c 2 -a 0 -i 14 -k RTR 
- -t 13.035169051 -s 2 -d -1 -p message -e 32 -c 2 -a 0 -i 14 -k RTR
h -t 13.035169051 -s 2 -d -1 -p message -e 32 -c 2 -a 0 -i 14 -k RTR
r -t 13.035989216 -s 1 -d -1 -p message -e 32 -c 2 -a 0 -i 14 -k RTR
r -t 13.035989415 -s 0 -d -1 -p message -e 32 -c 2 -a 0 -i 14 -k RTR
r -t 13.035989463 -s 4 -d -1 -p message -e 32 -c 2 -a 0 -i 14 -k RTR
r -t 13.035989810 -s 3 -d -1 -p message -e 32 -c 2 -a 0 -i 14 -k RTR
+ -t 13.039585928 -s 4 -d -1 -p message -e 44 -c 2 -a 0 -i 15 -k RTR 
- -t 13.039585928 -s 4 -d -1 -p message -e 44 -c 2 -a 0 -i 15 -k RTR
h -t 13.039585928 -s 4 -d -1 -p message -e 44 -c 2 -a 0 -i 15 -k RTR
r -t 13.040822191 -s 1 -d -1 -p message -e 44 -c 2 -a 0 -i 15 -k RTR
r -t 13.040822340 -s 2 -d -1 -p message -e 44 -c 2 -a 0 -i 15 -k RTR
r -t 13.040822495 -s 0 -d -1 -p message -e 44 -c 2 -a 0 -i 15 -k RTR
+ -t 13.184453181 -s 1 -d -1 -p message -e 32 -c 2 -a 0 -i 16 -k RTR 
- -t 13.184453181 -s 1 -d -1 -p message -e 32 -c 2 -a 0 -i 16 -k RTR
h -t 13.184453181 -s 1 -d -1 -p message -e 32 -c 2 -a 0 -i 16 -k RTR
r -t 13.185353347 -s 2 -d -1 -p message -e 32 -c 2 -a 0 -i 16 -k RTR
r -t 13.185353445 -s 4 -d -1 -p message -e 32 -c 2 -a 0 -i 16 -k RTR
r -t 13.185353529 -s 0 -d -1 -p message -e 32 -c 2 -a 0 -i 16 -k RTR
r -t 13.185353888 -s 3 -d -1 -p message -e 32 -c 2 -a 0 -i 16 -k RTR
+ -t 14.034461257 -s 2 -d -1 -p message -e 44 -c 2 -a 0 -i 19 -k RTR 
- -t 14.034461257 -s 2 -d -1 -p message -e 44 -c 2 -a 0 -i 19 -k RTR
h -t 14.034461257 -s 2 -d -1 -p message -e 44 -c 2 -a 0 -i 19 -k RTR
r -t 14.035617437 -s 1 -d -1 -p message -e 44 -c 2 -a 0 -i 19 -k RTR
r -t 14.035617636 -s 0 -d -1 -p message -e 44 -c 2 -a 0 -i 19 -k RTR
+ -t 14.035617636 -s 0 -d 2 -p tcp -e 80 -c 2 -a 0 -i 5 -k RTR 
- -t 14.035617636 -s 0 -d 2 -p tcp -e 80 -c 2 -a 0 -i 5 -k RTR
h -t 14.035617636 -s 0 -d 2 -p tcp -e 80 -c 2 -a 0 -i 5 -k RTR
+ -t 14.035617636 -s 0 -d 2 -p tcp -e 80 -c 2 -a 0 -i 13 -k RTR 
- -t 14.035617636 -s 0 -d 2 -p tcp -e 80 -c 2 -a 0 -i 13 -k RTR
h -t 14.035617636 -s 0 -d 2 -p tcp -e 80 -c 2 -a 0 -i 13 -k RTR
d -t 14.035617636 -s 0 -d 2 -p tcp -e 80 -c 2 -a 0 -i 5 -k IFQ
r -t 14.035617668 -s 4 -d -1 -p message -e 44 -c 2 -a 0 -i 19 -k RTR
r -t 14.035618015 -s 3 -d -1 -p message -e 44 -c 2 -a 0 -i 19 -k RTR
+ -t 14.041584292 -s 2 -d 4 -p tcp -e 80 -c 2 -a 0 -i 13 -k RTR 
- -t 14.041584292 -s 2 -d 4 -p tcp -e 80 -c 2 -a 0 -i 13 -k RTR
h -t 14.041584292 -s 2 -d 4 -p tcp -e 80 -c 2 -a 0 -i 13 -k RTR
r -t 14.048871688 -s 4 -d 4 -p tcp -e 80 -c 2 -a 0 -i 13 -k AGT
+ -t 14.048871688 -s 4 -d -1 -p ack -e 40 -c 2 -a 0 -i 20 -k AGT 
- -t 14.048871688 -s 4 -d -1 -p ack -e 40 -c 2 -a 0 -i 20 -k AGT
h -t 14.048871688 -s 4 -d -1 -p ack -e 40 -c 2 -a 0 -i 20 -k AGT
+ -t 14.048871688 -s 4 -d 0 -p ack -e 60 -c 2 -a 0 -i 20 -k RTR 
- -t 14.048871688 -s 4 -d 0 -p ack -e 60 -c 2 -a 0 -i 20 -k RTR
h -t 14.048871688 -s 4 -d 0 -p ack -e 60 -c 2 -a 0 -i 20 -k RTR
r -t 14.051117313 -s 0 -d 0 -p ack -e 60 -c 2 -a 0 -i 20 -k AGT
+ -t 14.051117313 -s 0 -d -1 -p tcp -e 1040 -c 2 -a 0 -i 21 -k AGT 
- -t 14.051117313 -s 0 -d -1 -p tcp -e 1040 -c 2 -a 0 -i 21 -k AGT
h -t 14.051117313 -s 0 -d -1 -p tcp -e 1040 -c 2 -a 0 -i 21 -k AGT
+ -t 14.051117313 -s 0 -d 2 -p tcp -e 1060 -c 2 -a 0 -i 21 -k RTR 
- -t 14.051117313 -s 0 -d 2 -p tcp -e 1060 -c 2 -a 0 -i 21 -k RTR
h -t 14.051117313 -s 0 -d 2 -p tcp -e 1060 -c 2 -a 0 -i 21 -k RTR
+ -t 14.061162453 -s 2 -d 4 -p tcp -e 1060 -c 2 -a 0 -i 21 -k RTR 
- -t 14.061162453 -s 2 -d 4 -p tcp -e 1060 -c 2 -a 0 -i 21 -k RTR
h -t 14.061162453 -s 2 -d 4 -p tcp -e 1060 -c 2 -a 0 -i 21 -k RTR
r -t 14.071747686 -s 4 -d 4 -p tcp -e 1060 -c 2 -a 0 -i 21 -k AGT
+ -t 14.071747686 -s 4 -d -1 -p ack -e 40 -c 2 -a 0 -i 22 -k AGT 
- -t 14.071747686 -s 4 -d -1 -p ack -e 40 -c 2 -a 0 -i 22 -k AGT
h -t 14.071747686 -s 4 -d -1 -p ack -e 40 -c 2 -a 0 -i 22 -k AGT
+ -t 14.071747686 -s 4 -d 0 -p ack -e 60 -c 2 -a 0 -i 22 -k RTR 
- -t 14.071747686 -s 4 -d 0 -p ack -e 60 -c 2 -a 0 -i 22 -k RTR
h -t 14.071747686 -s 4 -d 0 -p ack -e 60 -c 2 -a 0 -i 22 -k RTR
r -t 14.073793310 -s 0 -d 0 -p ack -e 60 -c 2 -a 0 -i 22 -k AGT
+ -t 14.073793310 -s 0 -d -1 -p tcp -e 1040 -c 2 -a 0 -i 23 -k AGT 
- -t 14.073793310 -s 0 -d -1 -p tcp -e 1040 -c 2 -a 0 -i 23 -k AGT
h -t 14.073793310 -s 0 -d -1 -p tcp -e 1040 -c 2 -a 0 -i 23 -k AGT
+ -t 14.073793310 -s 0 -d 2 -p tcp -e 1060 -c 2 -a 0 -i 23 -k RTR 
- -t 14.073793310 -s 0 -d 2 -p tcp -e 1060 -c 2 -a 0 -i 23 -k RTR
h -t 14.073793310 -s 0 -d 2 -p tcp -e 1060 -c 2 -a 0 -i 23 -k RTR
+ -t 14.073793310 -s 0 -d -1 -p tcp -e 1040 -c 2 -a 0 -i 24 -k AGT 
- -t 14.073793310 -s 0 -d -1 -p tcp -e 1040 -c 2 -a 0 -i 24 -k AGT
h -t 14.073793310 -s 0 -d -1 -p tcp -e 1040 -c 2 -a 0 -i 24 -k AGT
+ -t 14.073793310 -s 0 -d 2 -p tcp -e 1060 -c 2 -a 0 -i 24 -k RTR 
- -t 14.073793310 -s 0 -d 2 -p tcp -e 1060 -c 2 -a 0 -i 24 -k RTR
h -t 14.073793310 -s 0 -d 2 -p tcp -e 1060 -c 2 -a 0 -i 24 -k RTR
+ -t 14.083898450 -s 2 -d 4 -p tcp -e 1060 -c 2 -a 0 -i 23 -k RTR 
- -t 14.083898450 -s 2 -d 4 -p tcp -e 1060 -c 2 -a 0 -i 23 -k RTR
h -t 14.083898450 -s 2 -d 4 -p tcp -e 1060 -c 2 -a 0 -i 23 -k RTR
r -t 14.094303683 -s 4 -d 4 -p tcp -e 1060 -c 2 -a 0 -i 23 -k AGT
+ -t 14.094303683 -s 4 -d -1 -p ack -e 40 -c 2 -a 0 -i 25 -k AGT 
- -t 14.094303683 -s 4 -d -1 -p ack -e 40 -c 2 -a 0 -i 25 -k AGT
h -t 14.094303683 -s 4 -d -1 -p ack -e 40 -c 2 -a 0 -i 25 -k AGT
+ -t 14.094303683 -s 4 -d 0 -p ack -e 60 -c 2 -a 0 -i 25 -k RTR 
- -t 14.094303683 -s 4 -d 0 -p ack -e 60 -c 2 -a 0 -i 25 -k RTR
h -t 14.094303683 -s 4 -d 0 -p ack -e 60 -c 2 -a 0 -i 25 -k RTR
+ -t 14.104309366 -s 2 -d 4 -p tcp -e 1060 -c 2 -a 0 -i 24 -k RTR 
- -t 14.104309366 -s 2 -d 4 -p tcp -e 1060 -c 2 -a 0 -i 24 -k RTR
h -t 14.104309366 -s 2 -d 4 -p tcp -e 1060 -c 2 -a 0 -i 24 -k RTR
r -t 14.106355399 -s 0 -d 0 -p ack -e 60 -c 2 -a 0 -i 25 -k AGT
+ -t 14.106355399 -s 0 -d -1 -p tcp -e 1040 -c 2 -a 0 -i 26 -k AGT 
- -t 14.106355399 -s 0 -d -1 -p tcp -e 1040 -c 2 -a 0 -i 26 -k AGT
h -t 14.106355399 -s 0 -d -1 -p tcp -e 1040 -c 2 -a 0 -i 26 -k AGT
+ -t 14.106355399 -s 0 -d 2 -p tcp -e 1060 -c 2 -a 0 -i 26 -k RTR 
- -t 14.106355399 -s 0 -d 2 -p tcp -e 1060 -c 2 -a 0 -i 26 -k RTR
h -t 14.106355399 -s 0 -d 2 -p tcp -e 1060 -c 2 -a 0 -i 26 -k RTR
+ -t 14.116580541 -s 2 -d 4 -p tcp -e 1060 -c 2 -a 0 -i 26 -k RTR 
- -t 14.116580541 -s 2 -d 4 -p tcp -e 1060 -c 2 -a 0 -i 26 -k RTR
h -t 14.116580541 -s 2 -d 4 -p tcp -e 1060 -c 2 -a 0 -i 26 -k RTR
r -t 14.126785774 -s 4 -d 4 -p tcp -e 1060 -c 2 -a 0 -i 24 -k AGT
+ -t 14.126785774 -s 4 -d -1 -p ack -e 40 -c 2 -a 0 -i 27 -k AGT 
- -t 14.126785774 -s 4 -d -1 -p ack -e 40 -c 2 -a 0 -i 27 -k AGT
h -t 14.126785774 -s 4 -d -1 -p ack -e 40 -c 2 -a 0 -i 27 -k AGT
+ -t 14.126785774 -s 4 -d 0 -p ack -e 60 -c 2 -a 0 -i 27 -k RTR 
- -t 14.126785774 -s 4 -d 0 -p ack -e 60 -c 2 -a 0 -i 27 -k RTR
h -t 14.126785774 -s 4 -d 0 -p ack -e 60 -c 2 -a 0 -i 27 -k RTR
r -t 14.136811419 -s 4 -d 4 -p tcp -e 1060 -c 2 -a 0 -i 26 -k AGT
+ -t 14.136811419 -s 4 -d -1 -p ack -e 40 -c 2 -a 0 -i 28 -k AGT 
- -t 14.136811419 -s 4 -d -1 -p ack -e 40 -c 2 -a 0 -i 28 -k AGT
h -t 14.136811419 -s 4 -d -1 -p ack -e 40 -c 2 -a 0 -i 28 -k AGT
+ -t 14.136811419 -s 4 -d 0 -p ack -e 60 -c 2 -a 0 -i 28 -k RTR 
- -t 14.136811419 -s 4 -d 0 -p ack -e 60 -c 2 -a 0 -i 28 -k RTR
h -t 14.136811419 -s 4 -d 0 -p ack -e 60 -c 2 -a 0 -i 28 -k RTR
r -t 14.139097038 -s 0 -d 0 -p ack -e 60 -c 2 -a 0 -i 27 -k AGT
+ -t 14.139097038 -s 0 -d -1 -p tcp -e 1040 -c 2 -a 0 -i 29 -k AGT 
- -t 14.139097038 -s 0 -d -1 -p tcp -e 1040 -c 2 -a 0 -i 29 -k AGT
h -t 14.139097038 -s 0 -d -1 -p tcp -e 1040 -c 2 -a 0 -i 29 -k AGT
+ -t 14.139097038 -s 0 -d 2 -p tcp -e 1060 -c 2 -a 0 -i 29 -k RTR 
- -t 14.139097038 -s 0 -d 2 -p tcp -e 1060 -c 2 -a 0 -i 29 -k RTR
h -t 14.139097038 -s 0 -d 2 -p tcp -e 1060 -c 2 -a 0 -i 29 -k RTR
r -t 14.141263197 -s 0 -d 0 -p ack -e 60 -c 2 -a 0 -i 28 -k AGT
+ -t 14.141263197 -s 0 -d -1 -p tcp -e 1040 -c 2 -a 0 -i 30 -k AGT 
- -t 14.141263197 -s 0 -d -1 -p tcp -e 1040 -c 2 -a 0 -i 30 -k AGT
h -t 14.141263197 -s 0 -d -1 -p tcp -e 1040 -c 2 -a 0 -i 30 -k AGT
+ -t 14.141263197 -s 0 -d 2 -p tcp -e 1060 -c 2 -a 0 -i 30 -k RTR 
- -t 14.141263197 -s 0 -d 2 -p tcp -e 1060 -c 2 -a 0 -i 30 -k RTR
h -t 14.141263197 -s 0 -d 2 -p tcp -e 1060 -c 2 -a 0 -i 30 -k RTR
+ -t 14.141263197 -s 0 -d -1 -p tcp -e 1040 -c 2 -a 0 -i 31 -k AGT 
- -t 14.141263197 -s 0 -d -1 -p tcp -e 1040 -c 2 -a 0 -i 31 -k AGT
h -t 14.141263197 -s 0 -d -1 -p tcp -e 1040 -c 2 -a 0 -i 31 -k AGT
+ -t 14.141263197 -s 0 -d 2 -p tcp -e 1060 -c 2 -a 0 -i 31 -k RTR 
- -t 14.141263197 -s 0 -d 2 -p tcp -e 1060 -c 2 -a 0 -i 31 -k RTR
h -t 14.141263197 -s 0 -d 2 -p tcp -e 1060 -c 2 -a 0 -i 31 -k RTR
+ -t 14.151288341 -s 2 -d 4 -p tcp -e 1060 -c 2 -a 0 -i 29 -k RTR 
- -t 14.151288341 -s 2 -d 4 -p tcp -e 1060 -c 2 -a 0 -i 29 -k RTR
h -t 14.151288341 -s 2 -d 4 -p tcp -e 1060 -c 2 -a 0 -i 29 -k RTR
r -t 14.161353575 -s 4 -d 4 -p tcp -e 1060 -c 2 -a 0 -i 29 -k AGT
+ -t 14.161353575 -s 4 -d -1 -p ack -e 40 -c 2 -a 0 -i 32 -k AGT 
- -t 14.161353575 -s 4 -d -1 -p ack -e 40 -c 2 -a 0 -i 32 -k AGT
h -t 14.161353575 -s 4 -d -1 -p ack -e 40 -c 2 -a 0 -i 32 -k AGT
+ -t 14.161353575 -s 4 -d 0 -p ack -e 60 -c 2 -a 0 -i 32 -k RTR 
- -t 14.161353575 -s 4 -d 0 -p ack -e 60 -c 2 -a 0 -i 32 -k RTR
h -t 14.161353575 -s 4 -d 0 -p ack -e 60 -c 2 -a 0 -i 32 -k RTR
r -t 14.163399192 -s 0 -d 0 -p ack -e 60 -c 2 -a 0 -i 32 -k AGT
+ -t 14.163399192 -s 0 -d -1 -p tcp -e 1040 -c 2 -a 0 -i 33 -k AGT 
- -t 14.163399192 -s 0 -d -1 -p tcp -e 1040 -c 2 -a 0 -i 33 -k AGT
h -t 14.163399192 -s 0 -d -1 -p tcp -e 1040 -c 2 -a 0 -i 33 -k AGT
+ -t 14.163399192 -s 0 -d 2 -p tcp -e 1060 -c 2 -a 0 -i 33 -k RTR 
- -t 14.163399192 -s 0 -d 2 -p tcp -e 1060 -c 2 -a 0 -i 33 -k RTR
h -t 14.163399192 -s 0 -d 2 -p tcp -e 1060 -c 2 -a 0 -i 33 -k RTR
+ -t 14.173704338 -s 2 -d 4 -p tcp -e 1060 -c 2 -a 0 -i 30 -k RTR 
- -t 14.173704338 -s 2 -d 4 -p tcp -e 1060 -c 2 -a 0 -i 30 -k RTR
h -t 14.173704338 -s 2 -d 4 -p tcp -e 1060 -c 2 -a 0 -i 30 -k RTR
+ -t 14.180229811 -s 1 -d -1 -p message -e 44 -c 2 -a 0 -i 34 -k RTR 
- -t 14.180229811 -s 1 -d -1 -p message -e 44 -c 2 -a 0 -i 34 -k RTR
h -t 14.180229811 -s 1 -d -1 -p message -e 44 -c 2 -a 0 -i 34 -k RTR
r -t 14.183729571 -s 4 -d 4 -p tcp -e 1060 -c 2 -a 0 -i 30 -k AGT
+ -t 14.183729571 -s 4 -d -1 -p ack -e 40 -c 2 -a 0 -i 35 -k AGT 
- -t 14.183729571 -s 4 -d -1 -p ack -e 40 -c 2 -a 0 -i 35 -k AGT
h -t 14.183729571 -s 4 -d -1 -p ack -e 40 -c 2 -a 0 -i 35 -k AGT
+ -t 14.183729571 -s 4 -d 0 -p ack -e 60 -c 2 -a 0 -i 35 -k RTR 
- -t 14.183729571 -s 4 -d 0 -p ack -e 60 -c 2 -a 0 -i 35 -k RTR
h -t 14.183729571 -s 4 -d 0 -p ack -e 60 -c 2 -a 0 -i 35 -k RTR
r -t 14.184910033 -s 2 -d -1 -p message -e 44 -c 2 -a 0 -i 34 -k RTR
r -t 14.184910128 -s 4 -d -1 -p message -e 44 -c 2 -a 0 -i 34 -k RTR
r -t 14.184910154 -s 0 -d -1 -p message -e 44 -c 2 -a 0 -i 34 -k RTR
r -t 14.184910517 -s 3 -d -1 -p message -e 44 -c 2 -a 0 -i 34 -k RTR
+ -t 14.194701301 -s 2 -d 4 -p tcp -e 1060 -c 2 -a 0 -i 31 -k RTR 
- -t 14.194701301 -s 2 -d 4 -p tcp -e 1060 -c 2 -a 0 -i 31 -k RTR
h -t 14.194701301 -s 2 -d 4 -p tcp -e 1060 -c 2 -a 0 -i 31 -k RTR
r -t 14.196707328 -s 0 -d 0 -p ack -e 60 -c 2 -a 0 -i 35 -k AGT
+ -t 14.196707328 -s 0 -d -1 -p tcp -e 1040 -c 2 -a 0 -i 36 -k AGT 
- -t 14.196707328 -s 0 -d -1 -p tcp -e 1040 -c 2 -a 0 -i 36 -k AGT
h -t 14.196707328 -s 0 -d -1 -p tcp -e 1040 -c 2 -a 0 -i 36 -k AGT
+ -t 14.196707328 -s 0 -d 2 -p tcp -e 1060 -c 2 -a 0 -i 36 -k RTR 
- -t 14.196707328 -s 0 -d 2 -p tcp -e 1060 -c 2 -a 0 -i 36 -k RTR
h -t 14.196707328 -s 0 -d 2 -p tcp -e 1060 -c 2 -a 0 -i 36 -k RTR
r -t 14.206912944 -s 4 -d 4 -p tcp -e 1060 -c 2 -a 0 -i 31 -k AGT
+ -t 14.206912944 -s 4 -d -1 -p ack -e 40 -c 2 -a 0 -i 37 -k AGT 
- -t 14.206912944 -s 4 -d -1 -p ack -e 40 -c 2 -a 0 -i 37 -k AGT
h -t 14.206912944 -s 4 -d -1 -p ack -e 40 -c 2 -a 0 -i 37 -k AGT
+ -t 14.206912944 -s 4 -d 0 -p ack -e 60 -c 2 -a 0 -i 37 -k RTR 
- -t 14.206912944 -s 4 -d 0 -p ack -e 60 -c 2 -a 0 -i 37 -k RTR
h -t 14.206912944 -s 4 -d 0 -p ack -e 60 -c 2 -a 0 -i 37 -k RTR
+ -t 14.217078630 -s 2 -d 4 -p tcp -e 1060 -c 2 -a 0 -i 33 -k RTR 
- -t 14.217078630 -s 2 -d 4 -p tcp -e 1060 -c 2 -a 0 -i 33 -k RTR
h -t 14.217078630 -s 2 -d 4 -p tcp -e 1060 -c 2 -a 0 -i 33 -k RTR
r -t 14.219164655 -s 0 -d 0 -p ack -e 60 -c 2 -a 0 -i 37 -k AGT
+ -t 14.219164655 -s 0 -d -1 -p tcp -e 1040 -c 2 -a 0 -i 38 -k AGT 
- -t 14.219164655 -s 0 -d -1 -p tcp -e 1040 -c 2 -a 0 -i 38 -k AGT
h -t 14.219164655 -s 0 -d -1 -p tcp -e 1040 -c 2 -a 0 -i 38 -k AGT
+ -t 14.219164655 -s 0 -d 2 -p tcp -e 1060 -c 2 -a 0 -i 38 -k RTR 
- -t 14.219164655 -s 0 -d 2 -p tcp -e 1060 -c 2 -a 0 -i 38 -k RTR
h -t 14.219164655 -s 0 -d 2 -p tcp -e 1060 -c 2 -a 0 -i 38 -k RTR
+ -t 14.219164655 -s 0 -d -1 -p tcp -e 1040 -c 2 -a 0 -i 39 -k AGT 
- -t 14.219164655 -s 0 -d -1 -p tcp -e 1040 -c 2 -a 0 -i 39 -k AGT
h -t 14.219164655 -s 0 -d -1 -p tcp -e 1040 -c 2 -a 0 -i 39 -k AGT
+ -t 14.219164655 -s 0 -d 2 -p tcp -e 1060 -c 2 -a 0 -i 39 -k RTR 
- -t 14.219164655 -s 0 -d 2 -p tcp -e 1060 -c 2 -a 0 -i 39 -k RTR
h -t 14.219164655 -s 0 -d 2 -p tcp -e 1060 -c 2 -a 0 -i 39 -k RTR
r -t 14.229190272 -s 4 -d 4 -p tcp -e 1060 -c 2 -a 0 -i 33 -k AGT
+ -t 14.229190272 -s 4 -d -1 -p ack -e 40 -c 2 -a 0 -i 40 -k AGT 
- -t 14.229190272 -s 4 -d -1 -p ack -e 40 -c 2 -a 0 -i 40 -k AGT
h -t 14.229190272 -s 4 -d -1 -p ack -e 40 -c 2 -a 0 -i 40 -k AGT
+ -t 14.229190272 -s 4 -d 0 -p ack -e 60 -c 2 -a 0 -i 40 -k RTR 
- -t 14.229190272 -s 4 -d 0 -p ack -e 60 -c 2 -a 0 -i 40 -k RTR
h -t 14.229190272 -s 4 -d 0 -p ack -e 60 -c 2 -a 0 -i 40 -k RTR
+ -t 14.239195959 -s 2 -d 4 -p tcp -e 1060 -c 2 -a 0 -i 36 -k RTR 
- -t 14.239195959 -s 2 -d 4 -p tcp -e 1060 -c 2 -a 0 -i 36 -k RTR
h -t 14.239195959 -s 2 -d 4 -p tcp -e 1060 -c 2 -a 0 -i 36 -k RTR
+ -t 14.249181493 -s 2 -d 4 -p tcp -e 1060 -c 2 -a 0 -i 38 -k RTR 
- -t 14.249181493 -s 2 -d 4 -p tcp -e 1060 -c 2 -a 0 -i 38 -k RTR
h -t 14.249181493 -s 2 -d 4 -p tcp -e 1060 -c 2 -a 0 -i 38 -k RTR
+ -t 14.259227027 -s 2 -d 4 -p tcp -e 1060 -c 2 -a 0 -i 39 -k RTR 
- -t 14.259227027 -s 2 -d 4 -p tcp -e 1060 -c 2 -a 0 -i 39 -k RTR
h -t 14.259227027 -s 2 -d 4 -p tcp -e 1060 -c 2 -a 0 -i 39 -k RTR
r -t 14.269232260 -s 4 -d 4 -p tcp -e 1060 -c 2 -a 0 -i 36 -k AGT
+ -t 14.269232260 -s 4 -d -1 -p ack -e 40 -c 2 -a 0 -i 41 -k AGT 
- -t 14.269232260 -s 4 -d -1 -p ack -e 40 -c 2 -a 0 -i 41 -k AGT
h -t 14.269232260 -s 4 -d -1 -p ack -e 40 -c 2 -a 0 -i 41 -k AGT
+ -t 14.269232260 -s 4 -d 0 -p ack -e 60 -c 2 -a 0 -i 41 -k RTR 
- -t 14.269232260 -s 4 -d 0 -p ack -e 60 -c 2 -a 0 -i 41 -k RTR
h -t 14.269232260 -s 4 -d 0 -p ack -e 60 -c 2 -a 0 -i 41 -k RTR
r -t 14.271397871 -s 0 -d 0 -p ack -e 60 -c 2 -a 0 -i 40 -k AGT
+ -t 14.271397871 -s 0 -d -1 -p tcp -e 1040 -c 2 -a 0 -i 42 -k AGT 
- -t 14.271397871 -s 0 -d -1 -p tcp -e 1040 -c 2 -a 0 -i 42 -k AGT
h -t 14.271397871 -s 0 -d -1 -p tcp -e 1040 -c 2 -a 0 -i 42 -k AGT
+ -t 14.271397871 -s 0 -d 2 -p tcp -e 1060 -c 2 -a 0 -i 42 -k RTR 
- -t 14.271397871 -s 0 -d 2 -p tcp -e 1060 -c 2 -a 0 -i 42 -k RTR
h -t 14.271397871 -s 0 -d 2 -p tcp -e 1060 -c 2 -a 0 -i 42 -k RTR
+ -t 14.281723023 -s 2 -d 4 -p tcp -e 1060 -c 2 -a 0 -i 42 -k RTR 
- -t 14.281723023 -s 2 -d 4 -p tcp -e 1060 -c 2 -a 0 -i 42 -k RTR
h -t 14.281723023 -s 2 -d 4 -p tcp -e 1060 -c 2 -a 0 -i 42 -k RTR
r -t 14.291788256 -s 4 -d 4 -p tcp -e 1060 -c 2 -a 0 -i 38 -k AGT
+ -t 14.291788256 -s 4 -d -1 -p ack -e 40 -c 2 -a 0 -i 43 -k AGT 
- -t 14.291788256 -s 4 -d -1 -p ack -e 40 -c 2 -a 0 -i 43 -k AGT
h -t 14.291788256 -s 4 -d -1 -p ack -e 40 -c 2 -a 0 -i 43 -k AGT
+ -t 14.291788256 -s 4 -d 0 -p ack -e 60 -c 2 -a 0 -i 43 -k RTR 
- -t 14.291788256 -s 4 -d 0 -p ack -e 60 -c 2 -a 0 -i 43 -k RTR
h -t 14.291788256 -s 4 -d 0 -p ack -e 60 -c 2 -a 0 -i 43 -k RTR
r -t 14.302559901 -s 4 -d 4 -p tcp -e 1060 -c 2 -a 0 -i 39 -k AGT
+ -t 14.302559901 -s 4 -d -1 -p ack -e 40 -c 2 -a 0 -i 44 -k AGT 
- -t 14.302559901 -s 4 -d -1 -p ack -e 40 -c 2 -a 0 -i 44 -k AGT
h -t 14.302559901 -s 4 -d -1 -p ack -e 40 -c 2 -a 0 -i 44 -k AGT
+ -t 14.302559901 -s 4 -d 0 -p ack -e 60 -c 2 -a 0 -i 44 -k RTR 
- -t 14.302559901 -s 4 -d 0 -p ack -e 60 -c 2 -a 0 -i 44 -k RTR
h -t 14.302559901 -s 4 -d 0 -p ack -e 60 -c 2 -a 0 -i 44 -k RTR
r -t 14.312565545 -s 4 -d 4 -p tcp -e 1060 -c 2 -a 0 -i 42 -k AGT
+ -t 14.312565545 -s 4 -d -1 -p ack -e 40 -c 2 -a 0 -i 45 -k AGT 
- -t 14.312565545 -s 4 -d -1 -p ack -e 40 -c 2 -a 0 -i 45 -k AGT
h -t 14.312565545 -s 4 -d -1 -p ack -e 40 -c 2 -a 0 -i 45 -k AGT
+ -t 14.312565545 -s 4 -d 0 -p ack -e 60 -c 2 -a 0 -i 45 -k RTR 
- -t 14.312565545 -s 4 -d 0 -p ack -e 60 -c 2 -a 0 -i 45 -k RTR
h -t 14.312565545 -s 4 -d 0 -p ack -e 60 -c 2 -a 0 -i 45 -k RTR
r -t 14.314771153 -s 0 -d 0 -p ack -e 60 -c 2 -a 0 -i 41 -k AGT
+ -t 14.314771153 -s 0 -d -1 -p tcp -e 1040 -c 2 -a 0 -i 46 -k AGT 
- -t 14.314771153 -s 0 -d -1 -p tcp -e 1040 -c 2 -a 0 -i 46 -k AGT
h -t 14.314771153 -s 0 -d -1 -p tcp -e 1040 -c 2 -a 0 -i 46 -k AGT
+ -t 14.314771153 -s 0 -d 2 -p tcp -e 1060 -c 2 -a 0 -i 46 -k RTR 
- -t 14.314771153 -s 0 -d 2 -p tcp -e 1060 -c 2 -a 0 -i 46 -k RTR
h -t 14.314771153 -s 0 -d 2 -p tcp -e 1060 -c 2 -a 0 -i 46 -k RTR
+ -t 14.325136308 -s 2 -d 4 -p tcp -e 1060 -c 2 -a 0 -i 46 -k RTR 
- -t 14.325136308 -s 2 -d 4 -p tcp -e 1060 -c 2 -a 0 -i 46 -k RTR
h -t 14.325136308 -s 2 -d 4 -p tcp -e 1060 -c 2 -a 0 -i 46 -k RTR
r -t 14.327202326 -s 0 -d 0 -p ack -e 60 -c 2 -a 0 -i 43 -k AGT
+ -t 14.327202326 -s 0 -d -1 -p tcp -e 1040 -c 2 -a 0 -i 47 -k AGT 
- -t 14.327202326 -s 0 -d -1 -p tcp -e 1040 -c 2 -a 0 -i 47 -k AGT
h -t 14.327202326 -s 0 -d -1 -p tcp -e 1040 -c 2 -a 0 -i 47 -k AGT
+ -t 14.327202326 -s 0 -d 2 -p tcp -e 1060 -c 2 -a 0 -i 47 -k RTR 
- -t 14.327202326 -s 0 -d 2 -p tcp -e 1060 -c 2 -a 0 -i 47 -k RTR
h -t 14.327202326 -s 0 -d 2 -p tcp -e 1060 -c 2 -a 0 -i 47 -k RTR
r -t 14.337487944 -s 4 -d 4 -p tcp -e 1060 -c 2 -a 0 -i 46 -k AGT
+ -t 14.337487944 -s 4 -d -1 -p ack -e 40 -c 2 -a 0 -i 48 -k AGT 
- -t 14.337487944 -s 4 -d -1 -p ack -e 40 -c 2 -a 0 -i 48 -k AGT
h -t 14.337487944 -s 4 -d -1 -p ack -e 40 -c 2 -a 0 -i 48 -k AGT
+ -t 14.337487944 -s 4 -d 0 -p ack -e 60 -c 2 -a 0 -i 48 -k RTR 
- -t 14.337487944 -s 4 -d 0 -p ack -e 60 -c 2 -a 0 -i 48 -k RTR
h -t 14.337487944 -s 4 -d 0 -p ack -e 60 -c 2 -a 0 -i 48 -k RTR
r -t 14.339493550 -s 0 -d 0 -p ack -e 60 -c 2 -a 0 -i 44 -k AGT
+ -t 14.339493550 -s 0 -d -1 -p tcp -e 1040 -c 2 -a 0 -i 49 -k AGT 
- -t 14.339493550 -s 0 -d -1 -p tcp -e 1040 -c 2 -a 0 -i 49 -k AGT
h -t 14.339493550 -s 0 -d -1 -p tcp -e 1040 -c 2 -a 0 -i 49 -k AGT
+ -t 14.339493550 -s 0 -d 2 -p tcp -e 1060 -c 2 -a 0 -i 49 -k RTR 
- -t 14.339493550 -s 0 -d 2 -p tcp -e 1060 -c 2 -a 0 -i 49 -k RTR
h -t 14.339493550 -s 0 -d 2 -p tcp -e 1060 -c 2 -a 0 -i 49 -k RTR
+ -t 14.340839404 -s 1 -d -1 -p message -e 56 -c 2 -a 0 -i 50 -k RTR 
- -t 14.340839404 -s 1 -d -1 -p message -e 56 -c 2 -a 0 -i 50 -k RTR
h -t 14.340839404 -s 1 -d -1 -p message -e 56 -c 2 -a 0 -i 50 -k RTR
+ -t 14.349578707 -s 2 -d 4 -p tcp -e 1060 -c 2 -a 0 -i 47 -k RTR 
- -t 14.349578707 -s 2 -d 4 -p tcp -e 1060 -c 2 -a 0 -i 47 -k RTR
h -t 14.349578707 -s 2 -d 4 -p tcp -e 1060 -c 2 -a 0 -i 47 -k RTR
+ -t 14.359564249 -s 2 -d 4 -p tcp -e 1060 -c 2 -a 0 -i 49 -k RTR 
- -t 14.359564249 -s 2 -d 4 -p tcp -e 1060 -c 2 -a 0 -i 49 -k RTR
h -t 14.359564249 -s 2 -d 4 -p tcp -e 1060 -c 2 -a 0 -i 49 -k RTR
r -t 14.369629482 -s 4 -d 4 -p tcp -e 1060 -c 2 -a 0 -i 47 -k AGT
+ -t 14.369629482 -s 4 -d -1 -p ack -e 40 -c 2 -a 0 -i 51 -k AGT 
- -t 14.369629482 -s 4 -d -1 -p ack -e 40 -c 2 -a 0 -i 51 -k AGT
h -t 14.369629482 -s 4 -d -1 -p ack -e 40 -c 2 -a 0 -i 51 -k AGT
+ -t 14.369629482 -s 4 -d 0 -p ack -e 60 -c 2 -a 0 -i 51 -k RTR 
- -t 14.369629482 -s 4 -d 0 -p ack -e 60 -c 2 -a 0 -i 51 -k RTR
h -t 14.369629482 -s 4 -d 0 -p ack -e 60 -c 2 -a 0 -i 51 -k RTR
r -t 14.379615127 -s 4 -d 4 -p tcp -e 1060 -c 2 -a 0 -i 49 -k AGT
+ -t 14.379615127 -s 4 -d -1 -p ack -e 40 -c 2 -a 0 -i 52 -k AGT 
- -t 14.379615127 -s 4 -d -1 -p ack -e 40 -c 2 -a 0 -i 52 -k AGT
h -t 14.379615127 -s 4 -d -1 -p ack -e 40 -c 2 -a 0 -i 52 -k AGT
+ -t 14.379615127 -s 4 -d 0 -p ack -e 60 -c 2 -a 0 -i 52 -k RTR 
- -t 14.379615127 -s 4 -d 0 -p ack -e 60 -c 2 -a 0 -i 52 -k RTR
h -t 14.379615127 -s 4 -d 0 -p ack -e 60 -c 2 -a 0 -i 52 -k RTR
r -t 14.381051596 -s 2 -d -1 -p message -e 56 -c 2 -a 0 -i 50 -k RTR
r -t 14.381051690 -s 4 -d -1 -p message -e 56 -c 2 -a 0 -i 50 -k RTR
r -t 14.381051705 -s 0 -d -1 -p message -e 56 -c 2 -a 0 -i 50 -k RTR
r -t 14.381052068 -s 3 -d -1 -p message -e 56 -c 2 -a 0 -i 50 -k RTR
r -t 14.382943293 -s 0 -d 0 -p ack -e 60 -c 2 -a 0 -i 45 -k AGT
+ -t 14.382943293 -s 0 -d -1 -p tcp -e 1040 -c 2 -a 0 -i 54 -k AGT 
- -t 14.382943293 -s 0 -d -1 -p tcp -e 1040 -c 2 -a 0 -i 54 -k AGT
h -t 14.382943293 -s 0 -d -1 -p tcp -e 1040 -c 2 -a 0 -i 54 -k AGT
+ -t 14.382943293 -s 0 -d 2 -p tcp -e 1060 -c 2 -a 0 -i 54 -k RTR 
- -t 14.382943293 -s 0 -d 2 -p tcp -e 1060 -c 2 -a 0 -i 54 -k RTR
h -t 14.382943293 -s 0 -d 2 -p tcp -e 1060 -c 2 -a 0 -i 54 -k RTR
+ -t 14.382943293 -s 0 -d -1 -p tcp -e 1040 -c 2 -a 0 -i 55 -k AGT 
- -t 14.382943293 -s 0 -d -1 -p tcp -e 1040 -c 2 -a 0 -i 55 -k AGT
h -t 14.382943293 -s 0 -d -1 -p tcp -e 1040 -c 2 -a 0 -i 55 -k AGT
+ -t 14.382943293 -s 0 -d 2 -p tcp -e 1060 -c 2 -a 0 -i 55 -k RTR 
- -t 14.382943293 -s 0 -d 2 -p tcp -e 1060 -c 2 -a 0 -i 55 -k RTR
h -t 14.382943293 -s 0 -d 2 -p tcp -e 1060 -c 2 -a 0 -i 55 -k RTR
+ -t 14.389184605 -s 4 -d -1 -p message -e 56 -c 2 -a 0 -i 53 -k RTR 
- -t 14.389184605 -s 4 -d -1 -p message -e 56 -c 2 -a 0 -i 53 -k RTR
h -t 14.389184605 -s 4 -d -1 -p message -e 56 -c 2 -a 0 -i 53 -k RTR
+ -t 14.393148452 -s 2 -d 4 -p tcp -e 1060 -c 2 -a 0 -i 54 -k RTR 
- -t 14.393148452 -s 2 -d 4 -p tcp -e 1060 -c 2 -a 0 -i 54 -k RTR
h -t 14.393148452 -s 2 -d 4 -p tcp -e 1060 -c 2 -a 0 -i 54 -k RTR
r -t 14.403273686 -s 4 -d 4 -p tcp -e 1060 -c 2 -a 0 -i 54 -k AGT
+ -t 14.403273686 -s 4 -d -1 -p ack -e 40 -c 2 -a 0 -i 56 -k AGT 
- -t 14.403273686 -s 4 -d -1 -p ack -e 40 -c 2 -a 0 -i 56 -k AGT
h -t 14.403273686 -s 4 -d -1 -p ack -e 40 -c 2 -a 0 -i 56 -k AGT
+ -t 14.403273686 -s 4 -d 0 -p ack -e 60 -c 2 -a 0 -i 56 -k RTR 
- -t 14.403273686 -s 4 -d 0 -p ack -e 60 -c 2 -a 0 -i 56 -k RTR
h -t 14.403273686 -s 4 -d 0 -p ack -e 60 -c 2 -a 0 -i 56 -k RTR
+ -t 14.413359380 -s 2 -d 4 -p tcp -e 1060 -c 2 -a 0 -i 55 -k RTR 
- -t 14.413359380 -s 2 -d 4 -p tcp -e 1060 -c 2 -a 0 -i 55 -k RTR
h -t 14.413359380 -s 2 -d 4 -p tcp -e 1060 -c 2 -a 0 -i 55 -k RTR
r -t 14.415425392 -s 0 -d 0 -p ack -e 60 -c 2 -a 0 -i 48 -k AGT
+ -t 14.415425392 -s 0 -d -1 -p tcp -e 1040 -c 2 -a 0 -i 57 -k AGT 
- -t 14.415425392 -s 0 -d -1 -p tcp -e 1040 -c 2 -a 0 -i 57 -k AGT
h -t 14.415425392 -s 0 -d -1 -p tcp -e 1040 -c 2 -a 0 -i 57 -k AGT
+ -t 14.415425392 -s 0 -d 2 -p tcp -e 1060 -c 2 -a 0 -i 57 -k RTR 
- -t 14.415425392 -s 0 -d 2 -p tcp -e 1060 -c 2 -a 0 -i 57 -k RTR
h -t 14.415425392 -s 0 -d 2 -p tcp -e 1060 -c 2 -a 0 -i 57 -k RTR
+ -t 14.425430553 -s 2 -d 4 -p tcp -e 1060 -c 2 -a 0 -i 57 -k RTR 
- -t 14.425430553 -s 2 -d 4 -p tcp -e 1060 -c 2 -a 0 -i 57 -k RTR
h -t 14.425430553 -s 2 -d 4 -p tcp -e 1060 -c 2 -a 0 -i 57 -k RTR
r -t 14.426887247 -s 1 -d -1 -p message -e 56 -c 2 -a 0 -i 53 -k RTR
r -t 14.426887375 -s 2 -d -1 -p message -e 56 -c 2 -a 0 -i 53 -k RTR
r -t 14.426887498 -s 0 -d -1 -p message -e 56 -c 2 -a 0 -i 53 -k RTR
r -t 14.436698609 -s 4 -d 4 -p tcp -e 1060 -c 2 -a 0 -i 55 -k AGT
+ -t 14.436698609 -s 4 -d -1 -p ack -e 40 -c 2 -a 0 -i 58 -k AGT 
- -t 14.436698609 -s 4 -d -1 -p ack -e 40 -c 2 -a 0 -i 58 -k AGT
h -t 14.436698609 -s 4 -d -1 -p ack -e 40 -c 2 -a 0 -i 58 -k AGT
+ -t 14.436698609 -s 4 -d 0 -p ack -e 60 -c 2 -a 0 -i 58 -k RTR 
- -t 14.436698609 -s 4 -d 0 -p ack -e 60 -c 2 -a 0 -i 58 -k RTR
h -t 14.436698609 -s 4 -d 0 -p ack -e 60 -c 2 -a 0 -i 58 -k RTR
r -t 14.438924209 -s 0 -d 0 -p ack -e 60 -c 2 -a 0 -i 51 -k AGT
+ -t 14.438924209 -s 0 -d -1 -p tcp -e 1040 -c 2 -a 0 -i 59 -k AGT 
- -t 14.438924209 -s 0 -d -1 -p tcp -e 1040 -c 2 -a 0 -i 59 -k AGT
h -t 14.438924209 -s 0 -d -1 -p tcp -e 1040 -c 2 -a 0 -i 59 -k AGT
+ -t 14.438924209 -s 0 -d 4 -p tcp -e 1060 -c 2 -a 0 -i 59 -k RTR 
- -t 14.438924209 -s 0 -d 4 -p tcp -e 1060 -c 2 -a 0 -i 59 -k RTR